[Molden Format]
made by pyscf v[1.7.3]
[Atoms] (AU)
S   1   16     0.00000000000000     0.00000000000000     0.19464179083020
H   2   1     0.00000000000000     1.81716064138176    -1.55694535402915
H   3   1     0.00000000000000    -1.81716064138176    -1.55694535402915
[GTO]
1 0
 s    6 1.00
           5529.038289  0.0091635962806357
           1013.743118   0.049361492943424
           283.6087927    0.16853830491169
           97.42727471    0.37056279972571
           37.83386178    0.41649152982889
            15.5820736    0.13033408410904
 s    6 1.00
           345.5896791  -0.013252788099445
           68.40121655  -0.046991710098032
           21.25904712  -0.033785371498585
           8.179121699    0.25024178608952
           3.552198128    0.59511725257507
           1.628232301    0.24070617628992
 s    6 1.00
           12.94439442  -0.0079431264001577
           3.466625105   -0.07100264170141
           1.300021248   -0.17850269250354
          0.5819134077      0.151063505803
          0.2879592903     0.7354914767146
          0.1484042983    0.27605931230548
 p    6 1.00
           345.5896791  0.0037596966003502
           68.40121655    0.03767936980351
           21.25904712     0.1738967435162
           8.179121699    0.41803643473894
           3.552198128    0.42585954773967
           1.628232301    0.10170829550947
 p    6 1.00
           12.94439442  -0.0071393589003715
           3.466625105  -0.018292770700952
           1.300021248   0.076216214303966
          0.5819134077    0.41450985972157
          0.2879592903    0.48896214712544
          0.1484042983    0.10588165210551

2 0
 s    6 1.00
           35.52322122  0.0091635962807908
           6.513143725    0.04936149294426
           1.822142904    0.16853830491455
           0.625955266    0.37056279973198
           0.243076747    0.41649152983594
           0.100112428    0.13033408411125

3 0
 s    6 1.00
           35.52322122  0.0091635962807908
           6.513143725    0.04936149294426
           1.822142904    0.16853830491455
           0.625955266    0.37056279973198
           0.243076747    0.41649152983594
           0.100112428    0.13033408411125

[5d]
[7f]
[9g]

[MO]
 Sym= A1
 Ene=               0
 Spin= Alpha
 Occup=    1.00000
   1       0.9978255008265
   2    0.0064942294622481
   3    -0.000865580021507
   4                     0
   5                     0
   6    -0.0001650671641194
   7                     0
   8                     0
   9    0.00016177508472893
  10    0.00021313254485969
  11    0.00021313254485969
 Sym= A1
 Ene=               1
 Spin= Alpha
 Occup=    1.00000
   1     -0.35478133884789
   2       1.0475348641758
   3     0.047823546677633
   4                     0
   5                     0
   6    -0.017106315338206
   7                     0
   8                     0
   9    -0.0087484413077389
  10    -0.010408139709791
  11    -0.010408139709791
 Sym= B1
 Ene=               2
 Spin= Alpha
 Occup=    1.00000
   1                    -0
   2                    -0
   3                    -0
   4    -6.0309958754762e-17
   5      0.98493637180536
   6                    -0
   7    -3.5005261376819e-18
   8     0.057167930216599
   9                    -0
  10     -0.01139897043463
  11      0.01139897043463
 Sym= A1
 Ene=               3
 Spin= Alpha
 Occup=    1.00000
   1    -0.0073105269170463
   2     0.021753442646471
   3     -0.01090623056236
   4                     0
   5                     0
   6      0.98502655148065
   7                     0
   8                     0
   9     0.056213871961884
  10     0.011690304482486
  11     0.011690304482486
 Sym= B2
 Ene=               4
 Spin= Alpha
 Occup=    1.00000
   1                     0
   2                     0
   3                     0
   4      0.98739755820109
   5    6.0460662956844e-17
   6                     0
   7     0.046318394649641
   8    2.8361836874663e-18
   9                     0
  10                     0
  11                     0
 Sym= A1
 Ene=               5
 Spin= Alpha
 Occup=    1.00000
   1     0.084577816274748
   2     -0.28399260544916
   3      0.79114601301569
   4                     0
   5                     0
   6     0.051062724582713
   7                     0
   8                     0
   9     -0.12547572970505
  10      0.21629296836194
  11      0.21629296836194
 Sym= B1
 Ene=               6
 Spin= Alpha
 Occup=    1.00000
   1                     0
   2                     0
   3                     0
   4    1.1570583824142e-17
   5     -0.18896197388827
   6                     0
   7    -3.3110842483308e-17
   8      0.54074109378085
   9                     0
  10      0.48297847856763
  11     -0.48297847856763
 Sym= A1
 Ene=               7
 Spin= Alpha
 Occup=    1.00000
   1     0.047752706395145
   2     -0.14345422154556
   3       0.6199776299058
   4                     0
   5                     0
   6     -0.22008528342904
   7                     0
   8                     0
   9      0.68193836023726
  10     -0.33510225536943
  11     -0.33510225536943
 Sym= B2
 Ene=               8
 Spin= Alpha
 Occup=    1.00000
   1                     0
   2                     0
   3                     0
   4     -0.30318350236931
   5    -1.8564635286543e-17
   6                     0
   7       1.0318569573189
   8    6.3183015997927e-17
   9                     0
  10                     0
  11                     0
 Sym= B1
 Ene=               9
 Spin= Alpha
 Occup=    0.00000
   1                    -0
   2                    -0
   3                    -0
   4    1.645655864741e-17
   5     -0.26875599820075
   6                    -0
   7    -6.4173278385935e-17
   8       1.0480291693999
   9                    -0
  10     -0.72327470197763
  11      0.72327470197763
 Sym= A1
 Ene=              10
 Spin= Alpha
 Occup=    0.00000
   1    -0.047320844927496
   2      0.12415411075494
   3     -0.78242544010912
   4                     0
   5                     0
   6     -0.23731279570224
   7                     0
   8                     0
   9      0.95235013466108
  10      0.80457072055472
  11      0.80457072055472
